
Host: escapepod

Timers On : Fri Mar 15 10:46:39 2024
Timers Off: Fri Mar 15 10:46:40 2024

Wall Time:        1.00 seconds


***********************************************************
